16
Properties=species:S:1:pos:R:3:momenta:R:3:forces:R:3:hirshfeld:R:1:aims_charges:R:1 energy:=T -37.249243017244=T gnorm:=T 0.000133934854=T xtb:=T 6.4.1=T (afa7bdf)=T energy=-48.73817443847656 pbc="F F F"
Na       0.00002180       1.66073094       3.75472410       0.00000000       0.00000000       0.00000000       0.00000014      -0.01354683       0.05327080       0.36267475       0.34187073
Na       0.00000484       1.79073091      -1.29846077       0.00000000       0.00000000       0.00000000      -0.00000057      -0.05854706      -0.07694671       0.27991227       0.27587651
Na      -1.66073594       0.00000214      -3.75472668       0.00000000       0.00000000       0.00000000       0.01352528      -0.00000008      -0.05322744       0.36267727       0.34187340
Na      -1.79072888       0.00001164       1.29845232       0.00000000       0.00000000       0.00000000       0.05855228      -0.00000016       0.07704657       0.27991117       0.27587536
Na       0.00000441      -1.66071783       3.75472989       0.00000000       0.00000000       0.00000000       0.00000033       0.01354682       0.05326979       0.36267475       0.34187072
Na      -0.00001391      -1.79073544      -1.29845452       0.00000000       0.00000000       0.00000000      -0.00000016       0.05854635      -0.07694669       0.27991227       0.27587651
Na       1.66070972      -0.00001525      -3.75473827       0.00000000       0.00000000       0.00000000      -0.01352579      -0.00000055      -0.05322574       0.36267727       0.34187339
Na       1.79073794      -0.00000711       1.29843982       0.00000000       0.00000000       0.00000000      -0.05855183       0.00000048       0.07704750       0.27991117       0.27587536
Cl       0.00001501       2.03557404       1.24609696       0.00000000       0.00000000       0.00000000       0.00000162       0.31001705       0.03729636      -0.28616555      -0.27887136
Cl      -0.00000346       1.91415336      -3.86316675       0.00000000       0.00000000       0.00000000       0.00000092       0.43594962      -0.35418341      -0.35720215      -0.33887580
Cl      -2.03557656       0.00000848      -1.24608048       0.00000000       0.00000000       0.00000000      -0.31000963       0.00000142      -0.03740516      -0.28616482      -0.27887059
Cl      -1.91414765       0.00001676       3.86317422       0.00000000       0.00000000       0.00000000      -0.43593788       0.00000296       0.35414991      -0.35720441      -0.33887825
Cl       1.91417462      -0.00000328       3.86316086       0.00000000       0.00000000       0.00000000       0.43594044      -0.00000186       0.35414627      -0.35720441      -0.33887825
Cl       2.03556786      -0.00001283      -1.24609469       0.00000000       0.00000000       0.00000000       0.31000951      -0.00000143      -0.03740753      -0.28616482      -0.27887059
Cl      -0.00002351      -1.91416684      -3.86316007       0.00000000       0.00000000       0.00000000      -0.00000361      -0.43595067      -0.35418171      -0.35720215      -0.33887580
Cl      -0.00000631      -2.03556969       1.24610407       0.00000000       0.00000000       0.00000000      -0.00000116      -0.31001607       0.03729719      -0.28616555      -0.27887135
16
Properties=species:S:1:pos:R:3:momenta:R:3:forces:R:3:hirshfeld:R:1:aims_charges:R:1 energy:=T -37.249243017244=T gnorm:=T 0.000133934854=T xtb:=T 6.4.1=T (afa7bdf)=T energy=-47.50944900512695 pbc="F F F"
Na       1.63565342       3.87777130       0.92489361      -0.92493990       1.70713758      -0.89396186      -0.58093399       0.32911524       0.34416908       0.39519260       0.37580802
Na       2.05231377      -1.58458684      -0.72995983       1.98574751      -0.31009054      -0.37335990      -0.28859597       0.35301208      -0.22120593       0.35235682       0.34144652
Na      -0.56206755      -3.29935462      -2.36844194      -1.87181357      -1.62052008      -1.47253187       0.43027127      -0.03273825      -0.23710662       0.35392400       0.33570533
Na      -0.55289886       2.47258319      -1.33010038       0.34387153      -0.34340488       1.44978724       0.04365674      -0.41900524       0.05918106       0.33225987       0.31896201
Na      -1.88171686       3.62474451       1.75197188      -0.29689743       0.10027743      -1.05741086       0.47996306      -0.03229104      -0.18520176       0.40410926       0.38549015
Na      -1.72882641      -1.79194230      -0.07484147       1.50674240       0.16714139       1.99573963       0.15153447       0.24052842       0.09842338       0.36405492       0.35896276
Na       0.82502756      -4.33143983       0.43856917      -0.86683977      -0.26483691      -0.27079085      -0.11842746       0.01241089      -0.39118505       0.40842851       0.39230820
Na       0.18072220       0.78345402       1.55289087      -0.40082970      -1.73940703      -0.35805472      -0.06848985       0.14524335       0.28438449       0.28417166       0.28652219
Cl       1.90919685       1.67271214      -0.20866570       1.42958595       0.79064106      -0.24958648      -0.02984333      -0.26434344      -0.13545667      -0.31706737      -0.30535887
Cl       2.12594126      -3.84580511      -2.18288142       0.29290802      -0.31507488      -0.20368450      -0.46680909       0.09159619       0.69519132      -0.39348098      -0.37775476
Cl      -0.17569691      -0.60075550      -2.30594948      -3.50148970       1.26154315       2.41382926      -0.22923712      -0.40860426       0.40720576      -0.35071189      -0.34428606
Cl      -0.66529097       4.95343361      -0.55193084      -1.59131619      -0.28209648       0.26288351       0.19216286      -0.42858881       0.57909387      -0.40240707      -0.38416396
Cl       0.31318446       3.28945231       3.47368139      -1.04479020      -0.66974699      -1.19620200      -0.18347055      -0.16099879      -1.04157221      -0.43768904      -0.42383971
Cl       0.54382117      -1.93501312       1.58453772       1.26877937      -0.64259193      -0.97400555       0.04760591      -0.00544302      -0.31382859      -0.29139903      -0.28371227
Cl      -1.71022247      -4.63267035      -0.43159781       1.67461755       0.61559680      -0.17019475       0.26346120       0.55699986      -0.07060380      -0.37229666      -0.35351250
Cl      -2.31843071       1.23913078       0.46285567       1.99666414       1.54543231       1.09754370       0.35715190       0.02310663       0.12851176      -0.33182754      -0.32257704
16
Properties=species:S:1:pos:R:3:momenta:R:3:forces:R:3:hirshfeld:R:1:aims_charges:R:1 energy:=T -37.249243017244=T gnorm:=T 0.000133934854=T xtb:=T 6.4.1=T (afa7bdf)=T energy=-46.65438461303711 pbc="F F F"
Na      -1.18057550      -2.58423308       3.58018836       0.82372884      -1.03597841      -0.34345723      -0.01601544       0.01931122      -0.43711549       0.48971542       0.46039285
Na      -1.83765870       2.51224771      -1.23042292      -0.25337252       0.23423589      -3.07198513       0.33602130      -0.31166756       0.07898411       0.35387993       0.34147083
Na      -2.26925674      -1.64803341      -0.54173724       0.06514164       0.40919058      -0.76208825       0.13204482       0.55000073      -0.13222755       0.32064762       0.30349345
Na       0.71979032      -2.95397703       0.31753097      -2.44084275      -3.17245033      -0.11959387      -0.39473200       0.05050685       0.72710872       0.44490755       0.43848301
Na       1.51597728       0.49602715       2.52431077       1.46682087      -0.31289024       3.27228571      -0.37623084       0.03397932      -0.15622823       0.35517704       0.32904616
Na       1.86643809       0.13473960      -0.91315077       0.73191717       2.17888017      -2.25177260       0.01936360       0.00640728      -0.12862691       0.27412805       0.26343892
Na      -0.45978357      -0.44825508      -3.05332964       0.93259648       0.33239443       1.54624863       0.56721389       0.30699736      -0.08496726       0.35338069       0.33909838
Na       1.56127553       3.33479967      -0.36115548       0.79333182       0.47070305       0.95053714      -0.05178560       0.11581320       0.84172851       0.33986679       0.32728775
Cl      -0.49063205       0.50303104       0.38868215      -0.66797683       1.24015987      -0.33123340      -0.02600995      -0.73838454       0.41407269      -0.28187346      -0.28521911
Cl       1.11633191      -2.26674163      -2.05629170      -1.15247909      -0.88658188       0.11785473      -0.04949256       0.25316125      -0.03938002      -0.32528958      -0.30782653
Cl      -2.29157759      -3.35818013       1.19515810      -1.94974487      -0.60499628       2.95648582       0.64348459      -0.14957708       0.51379472      -0.37744306      -0.35348505
Cl       1.26482412      -1.81627839       3.57140206       3.69475620       0.64499534      -1.74079511      -0.22149858      -0.18754670      -0.37240794      -0.38986772      -0.36224213
Cl      -0.84200137       4.15787395       0.54575054      -4.12624921       0.22076477      -1.33609946       0.19613723       0.01505810      -0.12408759      -0.49477472      -0.47745073
Cl       0.83019648       2.19780133      -2.34777162       2.48578200      -0.68228041       1.41767374      -0.26116836      -0.58503807      -0.95188797      -0.33098252      -0.32310171
Cl      -2.76649355      -0.03186610      -2.46689541       1.20246678      -1.45917280       1.53124311      -0.49852991       0.31322277       0.05590496      -0.36547972      -0.34329520
Cl       3.23519335       1.37045717       0.91715555      -1.60587654       2.42302624      -1.83530382       0.00119770       0.30775583      -0.20466459      -0.36839677      -0.35009090
16
Properties=species:S:1:pos:R:3:momenta:R:3:forces:R:3:hirshfeld:R:1:aims_charges:R:1 energy:=T -37.249243017244=T gnorm:=T 0.000133934854=T xtb:=T 6.4.1=T (afa7bdf)=T energy=-45.27397155761719 pbc="F F F"
Na      -0.35030722       1.18535048      -2.98729710      -1.17956043       2.16070663       0.60417259      -1.10992217       1.36527753      -0.68214822       0.32660528       0.29816038
Na       3.06874626      -0.73913024      -0.76056761       0.97166917       1.51668370      -2.49662308       0.63716125      -0.63420057       0.49275091       0.37785859       0.36282086
Na      -3.05241137       1.53224378       2.46886527      -0.24603480       0.41595186       0.60526578      -0.13490039      -0.13798463      -0.14889710       0.45482138       0.42442292
Na      -0.17657933      -1.87584972       2.86268798       0.17328881       3.39962563       2.13546617      -0.07211776       0.02973174      -0.54765916       0.42780924       0.41125800
Na       0.27111077       1.33770925       0.66277608      -0.93541736      -1.73242169       0.59974257      -0.21917319      -0.19325729      -0.13937396       0.38765891       0.41079410
Na      -2.28666135       3.54876181      -1.43142427      -1.13373888      -0.41828119       2.43193913       0.55740267      -0.37490714       0.13332632       0.42976638       0.41053152
Na       2.30112888      -3.18327668       1.38256705       1.99519059      -0.74524105       0.95882682       0.42274725      -0.99960333      -0.74489313       0.33775364       0.32048230
Na      -1.88346287      -1.45267338      -0.94683261       0.57007139      -0.22323168      -1.47395282       0.51758081      -0.48593014       0.42162180       0.33108717       0.31988692
Cl       0.43496359       3.67189686      -2.75721809      -0.52902794      -2.65367722       0.23187578      -0.77076244      -0.35151768       0.29928023      -0.49343403      -0.47697857
Cl       2.07035528      -0.89518839       1.73222412       2.09938799       2.45573066       0.26122706      -0.29872435       1.54510784       0.61344075      -0.30926604      -0.30228011
Cl      -2.15184169      -0.68388058       1.74433971       0.11799406      -1.90483034      -3.21351954       0.04181803      -0.07657750       0.26329315      -0.31956533      -0.30105534
Cl      -0.14923615      -3.16771238       0.14565983      -0.64149505      -2.94322595       0.45312120       0.17285234      -0.22138821       0.30666518      -0.40782677      -0.39782776
Cl      -2.79288251       0.74979868      -1.35822465       0.63511259       1.20899970      -3.58639743       0.07165263       0.92124921      -0.64042890      -0.36391140      -0.35111459
Cl       0.93101276      -0.22153668      -1.81385514      -1.03117037       2.85063569       3.61693278       0.47815257      -0.93813360       0.77542746      -0.28964588      -0.27276766
Cl       4.76863674      -2.85414563       0.23588651      -0.39913045      -1.85738522      -1.56102554      -0.64661056       0.19483949      -0.15181179      -0.52845796      -0.51454070
Cl      -1.74876611       3.20097635       1.22624190      -0.46713930      -1.53003951       0.43294852       0.35284331       0.35729432      -0.25059357      -0.36359098      -0.34179228
16
Properties=species:S:1:pos:R:3:momenta:R:3:forces:R:3:hirshfeld:R:1:aims_charges:R:1 energy:=T -37.249243017244=T gnorm:=T 0.000133934854=T xtb:=T 6.4.1=T (afa7bdf)=T energy=-46.031314849853516 pbc="F F F"
Na      -0.86411639      -1.98375283      -0.34832837      -0.52237638       0.67850687       0.08390650       0.02551893      -0.17788164       0.55435240       0.33651219       0.33998733
Na      -1.77166839       0.70445760      -2.12744534       0.68138891      -0.08047322       2.17344482      -1.25023818       0.89555430      -0.03033630       0.31249317       0.28964948
Na       1.15907269      -3.93415745       2.44022622       2.67972352      -0.04675117       0.09776309      -0.25700453       0.22611123      -0.12584792       0.51680435       0.48902808
Na       2.44757337      -0.03538985      -1.09756472       0.60114794       2.03630515      -1.53064558      -0.06566512       0.13447526      -0.14165373       0.33068005       0.31978380
Na       1.82424804      -0.00504614       2.70696042      -0.83430033      -1.32047383      -1.60406209      -0.67707187       0.26434153      -0.33793956       0.42420099       0.40576463
Na      -2.19862153      -1.46881770       2.75523549       0.48155315       0.82371010       0.86477858      -0.31191790       1.43109405       0.02948339       0.34709219       0.32090906
Na      -1.38771700       2.51498957       0.12356084       1.64255716      -0.08352463       2.51680871       0.00919510      -0.23722938       0.45699787       0.36836766       0.35448460
Na       0.97924901       2.30553796      -2.49787964      -1.89891844       0.70201291       0.06732353       0.11565822       0.05905077       0.00289532       0.35828724       0.35616841
Cl      -2.80176518      -0.19026215       0.09391581       3.82442294      -0.42379011       0.62224482       0.10411392       0.15267727       0.05071918      -0.33624746      -0.32829889
Cl       1.22759393       1.92400883       0.59261033      -1.22043224      -0.30159700      -3.29504690       0.14791083      -0.11103988      -0.71624726      -0.33576597      -0.32819845
Cl       2.12053054      -1.99790284       0.97735721      -1.38786514      -4.43192692       0.88658614      -0.04847375       0.06352619      -0.02255561      -0.31393682      -0.29240780
Cl       3.51027273       1.64937021      -3.37388739      -1.82789549      -2.72000073       2.30112395      -0.73583734      -0.20489341       0.65259522      -0.52586973      -0.51401858
Cl      -1.43259218      -3.56758307       2.15995591       1.83175595      -1.08116371      -0.74400700       0.64618397      -0.99411005      -0.44775784      -0.35452969      -0.32910527
Cl      -0.04117356      -0.79012991      -2.42815135      -1.93700001       1.36073721       0.94896297       1.37997019      -0.31230789      -0.37358594      -0.29981599      -0.28793920
Cl      -1.87503515       3.47000738      -2.36329782      -1.83354968       1.81223379      -0.42037742       0.65828347      -0.85283780       0.32731465      -0.39813835      -0.38138651
Cl      -0.86391258       0.73037241       3.05112195      -0.28021186       3.07619531      -2.96880414       0.25937396      -0.33653057       0.12156604      -0.43250414      -0.41442069
16
Properties=species:S:1:pos:R:3:momenta:R:3:forces:R:3:hirshfeld:R:1:aims_charges:R:1 energy:=T -37.249243017244=T gnorm:=T 0.000133934854=T xtb:=T 6.4.1=T (afa7bdf)=T energy=-46.080562591552734 pbc="F F F"
Na       0.20893743       0.87359960      -4.16323035      -0.99819814       0.24319034      -1.27669085       0.26280370       0.30428183      -0.09792534       0.36921206       0.34164774
Na      -1.95625870      -2.92376499       3.73587881      -0.33109072      -1.03062863       0.14064313       0.75783706       0.29515010      -0.07562801       0.50064387       0.47974833
Na       0.78718265      -2.59533991      -1.63964558       0.61896658      -0.33682525      -0.68430233       0.14387903       0.08721948       0.43277454       0.43784758       0.42163364
Na      -1.75127827      -0.76082189      -0.39600049       3.76372414      -0.88655579       0.60807201      -0.16371782      -0.41759953       0.72139561       0.36188455       0.35370662
Na       2.40252826       1.00149432      -2.08105058      -0.31479011      -2.33098010       4.40732742      -0.06679426       0.52382529      -0.14075555       0.29496612       0.28358045
Na      -1.91130575       0.34043708       2.84535056       0.30393264       1.14046699      -0.63465988       0.31512097       0.02933699       0.20919921       0.32451771       0.30701601
Na      -0.75588386       3.18106975      -0.63518147      -0.44832619       0.76991003      -0.89345106       0.36398172      -0.40979546      -0.45078653       0.45261830       0.42701897
Na       1.43913570       0.12257741       1.80381730       0.88788986      -1.52815427      -1.75374264      -0.39321625      -0.11634479       0.28126508       0.29235318       0.28001213
Cl       0.17992320      -0.71193963       4.21756103      -1.15916292       0.70507971      -2.58742083      -0.44953328      -0.22184145      -0.19394885      -0.43071382      -0.41923961
Cl      -3.39535447      -1.68659108       2.15397371      -0.24857422       1.45244949       4.79534715      -0.16500741       0.41048503      -0.38236293      -0.39018251      -0.37126850
Cl       1.72345604      -1.06598839      -3.35506999      -1.82672939       0.03359965      -2.71444815       0.03493441      -0.06035210      -0.57787549      -0.33906133      -0.32044050
Cl      -1.40577461       0.72476017      -2.32061238       0.54878236       1.68652439      -1.99114978      -0.38153625       0.28908947       0.39737189      -0.33545974      -0.31178107
Cl       0.03870429      -2.36515404       0.88687992      -0.44628543      -0.39337260       1.71696611      -0.11947834       0.17624192      -0.32681811      -0.33768716      -0.32636817
Cl       3.18172895      -0.02335447      -0.02065845       0.43832728       1.61808648      -2.00916717       0.02074596      -0.07584600       0.27185911      -0.41548271      -0.39505723
Cl      -0.47347273       2.38125683       1.86026687      -2.69069090      -0.14205886       2.04531844      -0.03405414      -0.29777950      -0.43195122      -0.35564865      -0.33480909
Cl       1.17066517       3.26603649      -3.14420811       1.90222514      -1.00073156       0.83135843      -0.12596509      -0.51607132       0.36418653      -0.43209923      -0.41539972
16
Properties=species:S:1:pos:R:3:momenta:R:3:forces:R:3:hirshfeld:R:1:aims_charges:R:1 energy:=T -37.249243017244=T gnorm:=T 0.000133934854=T xtb:=T 6.4.1=T (afa7bdf)=T energy=-45.06233215332031 pbc="F F F"
Na       0.60542173      -2.29357906      -3.02604322       2.77557226       1.63764074      -0.97598202       0.26216590      -0.64403570       0.26694122       0.36179052       0.35727540
Na      -0.05153520       2.47797778       2.62695543      -0.01360895       2.07443510       0.76594349       0.88101578      -0.50340623      -1.03405070       0.26492548       0.25186923
Na      -0.76890027       2.26985056      -0.95141885      -1.35382568       0.86974221       0.13918986       0.13432489      -0.56891000       0.20175761       0.36113264       0.35283154
Na      -2.36203738      -0.79164556      -1.39330795      -1.34837308      -0.93824781      -0.24775514       0.51162022      -0.17886870       0.53321576       0.45457694       0.43663719
Na       2.71384239       0.00414576      -1.99011133       1.62489484       1.53610687       2.08997167      -0.31661707       0.27296644       0.30060923       0.47242002       0.44715278
Na      -2.54083407       4.30737130       1.50061285      -0.37735209       1.99838956      -0.84275385      -0.31435373      -0.38532251       0.76304603       0.44559786       0.42473469
Na       0.99258831      -4.42017269       0.03987866      -2.96628243      -0.17173018       0.46694167       0.15688396       0.41455379       0.56770283       0.40418579       0.38424430
Na       0.73783577      -1.25694558       1.09630623       0.35602234      -1.65000097      -0.81017169       0.29064530       0.60688174      -0.00727481       0.31731481       0.31580800
Cl      -1.73912107       3.32896768       3.91581237       3.62338349       0.65818761      -2.94380247      -1.12311578       0.67235661       0.46434313      -0.45996040      -0.44177994
Cl       0.04916867       0.08543635      -2.77039338       1.03593491      -1.86510499       3.85523818      -0.21856011       0.65895230       0.31901884      -0.29376197      -0.27540944
Cl       1.97857508       1.16299638       1.59791142       1.43137950      -2.91865672       0.13792498      -0.25596163      -0.24421343      -0.40183502      -0.43404641      -0.42011697
Cl      -1.04889102      -2.78621718       0.24739670      -0.60612385       0.06578365       2.27997365      -0.14190295      -0.09521800      -0.24165839      -0.35433921      -0.34320106
Cl       3.01597282      -2.14187878      -0.81752938       0.07704890       2.48082236      -1.67566892      -0.44969714      -0.26221961       0.22780919      -0.37513183      -0.36506419
Cl      -0.44161025       4.40257365       0.33304305      -3.74747482      -2.75012851       0.70730177       0.49678484       0.08444628      -0.23392679      -0.36064335      -0.34274348
Cl      -2.01545005       0.49104468       1.01334599      -0.91291504      -0.76497268      -1.20833637       0.20699418       0.59729147      -0.54067081      -0.35848779      -0.35232322
Cl       0.71036291      -4.66638551      -2.24787114       0.40171969      -0.26226622      -1.73801482      -0.12022666      -0.42525452      -1.18502736      -0.44792026      -0.42991481
16
Properties=species:S:1:pos:R:3:momenta:R:3:forces:R:3:hirshfeld:R:1:aims_charges:R:1 energy:=T -37.249243017244=T gnorm:=T 0.000133934854=T xtb:=T 6.4.1=T (afa7bdf)=T energy=-46.10641860961914 pbc="F F F"
Na       1.20179426      -1.43546747      -2.63158212      -3.07617779       0.34444823       2.69879414       0.15204178      -0.19006127       0.28643063       0.40568767       0.38938009
Na      -1.92921751       1.91546103       0.89614375       0.17449720       0.19461459       0.68452908       0.59210658       0.02569512       0.86921358       0.31150305       0.30178315
Na      -1.44334021       1.29787241      -2.14873350       2.20762038       0.87199548      -1.68963920       0.23086163       0.06078540       0.25693387       0.45209227       0.44515172
Na       1.71360863       1.88416192       1.81748155       1.34970447       0.33286006       0.00669798      -0.32822460       0.40034276      -0.09226770       0.32589982       0.29487628
Na       2.08078336      -1.41578541       2.48043641       1.01000295      -0.12983606      -0.68405623      -0.20957728       0.36212426      -0.03243051       0.44586785       0.42677995
Na       3.13678517      -0.26063251      -0.18358768      -0.54055170      -0.70107881      -1.27256071       0.16556771      -0.18502808      -0.61716932       0.33702345       0.33438500
Na      -3.69634219      -0.68529903      -1.28076158       5.39548398      -0.49279163      -0.46669179      -0.69295156       0.05597634       0.43411729       0.35452748       0.33034073
Na      -1.29706569      -1.13428167       0.48334059       0.69316463      -0.21346153       3.51342444       0.63406622      -0.35151902       0.43742901       0.23508159       0.24092881
Cl      -0.29335095       0.49424987       2.56118848      -0.39327141       1.65554838      -2.06596057       0.24523452      -0.33329031      -0.03414997      -0.31393530      -0.30477671
Cl       3.81381143      -0.78215068      -2.90964593       1.70683398      -0.68137024       1.76250523      -0.67645824       0.04594715       0.56762850      -0.48308182      -0.46644762
Cl      -3.55822703      -0.67626291       1.38946988      -2.18921647      -2.16059240      -1.88568833      -0.18215677      -0.16769333      -0.00152381      -0.41283552      -0.40449382
Cl      -3.63851459       1.81926469      -0.73451937      -0.98201519       1.50020700       0.90552260      -0.36872452       0.33635473      -1.19838262      -0.32862288      -0.31398524
Cl       3.86926342       0.69840200       2.18223121      -0.77389933       3.28917970      -3.91165531      -0.14230183      -0.50642812      -0.13534844      -0.34241730      -0.32153940
Cl       1.24181823      -2.41840414       0.13362979      -2.54816978      -2.22235117       1.96912287       0.28936791       0.57828486       0.06618039      -0.31428209      -0.30649206
Cl       0.45855492       2.75366281      -0.38344192       1.58889559      -0.54751618       1.05103671      -0.25989616      -0.57198083      -0.16889039      -0.37222506      -0.35559532
Cl      -1.67790609      -1.90294035      -1.93958650      -3.62290151      -1.03985544      -0.61538092       0.55104464       0.44049022      -0.63777059      -0.30253166      -0.29029555
16
Properties=species:S:1:pos:R:3:momenta:R:3:forces:R:3:hirshfeld:R:1:aims_charges:R:1 energy:=T -37.249243017244=T gnorm:=T 0.000133934854=T xtb:=T 6.4.1=T (afa7bdf)=T energy=-45.93335723876953 pbc="F F F"
Na      -3.86783054       0.32856641      -2.05351180       0.49561432       2.42862154       2.72642101      -0.05236233      -0.60510242       0.31152394       0.40979117       0.38974445
Na      -1.68278092       1.15068883      -3.51785120      -2.67443768       1.45927244      -0.81866002       0.61572099      -0.43510318       0.00798661       0.44492325       0.43363532
Na       3.02622884      -1.58477323       2.23640727      -0.05839053       0.55590334      -1.15806650       0.83137619       0.68432570       0.30211106       0.33809588       0.31120310
Na       1.65810947      -0.15901505      -0.85879529       0.11023885      -1.21874001       1.25860070       0.18310970      -0.09695767       0.31222153       0.26748988       0.25493238
Na       2.45614295       2.12183018       3.23573685       0.46204984       0.31550679       1.25449915       0.76709658      -0.32641101      -0.13042724       0.37910905       0.35402231
Na       0.03534814      -0.50920580       2.09048463      -1.97061122      -1.20895572      -1.47160686       0.15250346      -0.04126452      -0.08341790       0.37728932       0.38363275
Na      -1.83999683       1.81923482       0.51240975       2.02659644       2.05602579       0.11058734       0.12131834       0.49034521      -0.27135205       0.39097757       0.37162663
Na      -1.07032078      -2.84215519      -1.32106530       1.43382425      -1.47313584      -1.83272537       0.10953671       0.60514998      -0.26199442       0.40679737       0.39188240
Cl       0.33170519       2.19281883       2.17560824      -0.85722780      -0.43449784      -3.17159131      -1.09155083      -0.11617126      -0.48959959      -0.33878102      -0.32130900
Cl      -1.93477561      -0.66758033       0.14415980      -1.67819334       2.86276409       1.34931928      -0.17359322      -0.03126232       0.13119127      -0.29122415      -0.28029457
Cl      -2.84907327      -2.00457480      -3.29326231      -0.43370991      -5.93510634       1.76229331      -0.20087504       0.66797388       0.27562931      -0.45266898      -0.43867774
Cl       0.38320016      -0.71918981      -2.82937090       4.40045408      -3.41214912      -0.37385385      -0.43930274       0.24667278      -0.39708686      -0.38234496      -0.36719319
Cl       3.07801229      -0.06453880       4.30804540       3.85618615       3.14165582       1.11483093      -0.22949028      -0.19769731       0.05503571      -0.43726795      -0.41689117
Cl      -3.08713279       2.87418558      -2.02251553      -2.10189516       0.12630283      -0.33078920       0.29495269      -0.74366176       0.21573721      -0.37303027      -0.35007045
Cl       1.50753088      -2.48268612       0.63842945      -1.12441038      -0.76409174       0.21079748      -0.94055533      -0.15259638      -0.41162944      -0.32591977      -0.31200485
Cl       3.48625730       0.73116879       0.60472351      -1.88608791       1.50062396      -0.63005610       0.05211514       0.05176041       0.43407077      -0.41562072      -0.40423837
16
Properties=species:S:1:pos:R:3:momenta:R:3:forces:R:3:hirshfeld:R:1:aims_charges:R:1 energy:=T -37.249243017244=T gnorm:=T 0.000133934854=T xtb:=T 6.4.1=T (afa7bdf)=T energy=-45.222930908203125 pbc="F F F"
Na      -0.48851678      -3.91748778       0.35988731       1.45281484       1.62039311      -2.85108152       0.33587271      -0.26449805      -0.30021834       0.37331508       0.34828147
Na      -1.37337708      -0.48148027       0.50814048      -0.06586869      -1.21716179       3.65522264      -0.34752169       0.37881154      -0.37326536       0.32699614       0.33021233