 18
Properties=species:S:1:pos:R:3:hirshfeld:R:1:aims_charges:R:1:forces:R:3"
O       -2.71366859       0.57911497      -1.28704412      -0.28523273      -0.28249794      -0.5048    3558      -1.54332020      -0.68459040
H       -2.04723770       1.27740987      -1.21297326       0.10476813       0.10945438      -0.6603    2175       1.10250782       0.28083699
H       -3.62710216       0.91429447      -1.24282067       0.15651873       0.14899462       0.7684    8349       0.23746010       0.10098401
O       -0.36787678      -0.89478005      -0.99453119      -0.25623160      -0.26299079       1.5230    1969      -0.46933083       0.39444255
H       -0.16712762      -1.65787029      -1.56900983       0.16276930       0.15233820      -0.6102    7661       0.55261721       0.17367698
H       -1.23994127      -0.51883428      -1.13216414       0.11372404       0.12448328      -1.0930    1924      -0.32516284      -0.60690051
O        0.45670240       0.85682554       1.08939102      -0.27045014      -0.26603574      -1.4794    2742      -0.01501760       0.24088635
H        0.21547655       0.29268081       0.31918388       0.10876619       0.11918207       0.6929    9955      -0.05231188       0.24288205
H        1.40428303       0.98895612       1.10110577       0.12684166       0.12752145       0.6369    6383      -0.11162076      -0.40193678
O       -1.44911128       2.48745510      -0.13206066      -0.25905068      -0.25745425       0.2241    4926      -0.53544841       0.08879160
H       -1.43382451       3.41696111       0.09414892       0.15222416       0.13828567       0.2879    0274       0.34994652       0.27662358
H       -0.83592188       1.96896416       0.45993201       0.10842422       0.11635074      -0.0032    8483       0.82576791      -0.06240969
O        1.20972976      -3.07927760       1.23973678      -0.30760797      -0.28888937       1.1308    0417       0.63040275      -0.40744877
H        0.91152119      -2.14534743       1.18563063       0.13615872       0.13387690      -0.4907    4997      -0.93763726       0.30773147
H        0.51568388      -3.68996875       1.49078165       0.14867983       0.13720860      -0.6781    4876       0.32713879       0.12097378
O        2.97798372       0.03799623       0.17496888      -0.25013190      -0.24272439       0.1905    1722      -0.09119315      -0.11883655
H        3.92854420      -0.13547811       0.11458462       0.15840684       0.14594597       0.0759    0633       0.03806201       0.05964623
H        2.57572604      -0.74825197      -0.22629194       0.15143608       0.14695061      -0.0106    8210       0.01713983      -0.00535289