3
Properties=species:S:1:pos:R:3:momenta:R:3:forces:R:3 energy=-2079.6566902296663 pbc="F F F"
O        0.00000000       0.00000000       0.11926200       0.00000000       0.00000000       0.00000000       0.00000057       0.00000016      -0.43445181
H        0.00000000       0.76323900      -0.47704700       0.00000000       0.00000000       0.00000000      -0.00000000      -0.14634362       0.21323780
H        0.00000000      -0.76323900      -0.47704700       0.00000000       0.00000000       0.00000000      -0.00000000       0.14634254       0.21323800
