3
Properties=species:S:1:pos:R:3:momenta:R:3:forces:R:3 energy=-2078.367838807024 pbc="F F F"
O        0.00031671       0.00025860       0.08375659      -0.00849686       0.00895871      -0.60561516       0.01371130      -0.09410397       1.03416419
H       -0.00515479       1.00855786      -0.18884862       0.00450904      -0.68607092       0.29996634       0.00074336      -4.31248317      -0.54913401
H       -0.00153095      -1.00867996      -0.19842360       0.00398782       0.67711221       0.30564882      -0.01456404       4.40625554      -0.48164181
