3
Properties=species:S:1:pos:R:3:momenta:R:3:forces:R:3 energy=-2079.5437103082586 pbc="F F F"
O        0.00033276      -0.01122235      -0.00041385      -0.02138898      -0.08226398       0.05776976       0.05807021      -0.10140603      -1.00103582
H        0.42202029       0.79322050       0.33742290       0.08596399       0.12890302      -0.03136995      -0.52335658      -0.77371270       0.63230633
H       -0.42379310      -0.61401978       0.62458487      -0.06457500      -0.04663904      -0.02639981       0.46082623       0.87837756       0.36656806
