3
Properties=species:S:1:pos:R:3:momenta:R:3:forces:R:3 energy=-2078.2624470951996 pbc="F F F"
O       -0.00084407       0.00025113       0.05173214      -0.01539919       0.01217673      -0.27012178      -0.06799683       0.05185483      -0.10270798
H        0.00288813       0.98354999       0.06036531       0.00636708       0.37114900       0.13519254       0.03889460      -2.40523718       0.05154023
H        0.00686292      -0.98192628       0.06041580       0.00903211      -0.38332574       0.13492924       0.02960905       2.35336796       0.05193453
