3
Properties=species:S:1:pos:R:3:momenta:R:3:forces:R:3 energy=-2078.0352750237776 pbc="F F F"
O       -0.00445747       0.00020520      -0.02529065      -0.04340902      -0.00496587      -0.84100511       0.29532307      -0.02670370       5.61149465
H        0.01194434       0.96271953       0.66199718       0.00969814       0.52854166       0.41543301      -0.04500889      -4.81553165      -2.73798003
H        0.05258191      -0.95895066       0.68185065       0.03371088      -0.52357579       0.42557210      -0.25068039       4.84071394      -2.86587050
