3
Properties=species:S:1:pos:R:3:momenta:R:3:forces:R:3 energy=-2077.108528944331 pbc="F F F"
O       -0.00346076      -0.00089442      -0.03047883       0.00747912      -0.00421737      -0.03628933       0.23182533       0.07807855       6.00008037
H        0.00218616       1.03439296       0.69099738      -0.00132971       0.08586238       0.01080257       0.00026187      -5.20037978      -2.89354962
H        0.04851248      -1.01868453       0.73354475      -0.00614941      -0.08164501       0.02548676      -0.23236758       5.12067136      -3.10079162
