3
Properties=species:S:1:pos:R:3:momenta:R:3:forces:R:3 energy=-2077.2790651627674 pbc="F F F"
O       -0.00447778      -0.00059396      -0.02384599      -0.02657023      -0.01268135      -0.49886657       0.26981052       0.06826114       5.11272203
H        0.01205913       1.04920133       0.65511258       0.00662827       0.29017965       0.24915835      -0.03254640      -5.42268291      -2.52594546
H        0.05209949      -1.03275054       0.66680742       0.01994195      -0.27749830       0.24970822      -0.23950137       5.35407814      -2.58462196
