3
Properties=species:S:1:pos:R:3:momenta:R:3:forces:R:3 energy=-2078.711322960741 pbc="F F F"
O        0.00269994      -0.00037225       0.02664517       0.00289063      -0.03142740       0.36294915       0.24566896      -0.29039191      -2.14892054
H       -0.02316879       0.95056174       0.22636059       0.00969424      -0.20735021      -0.17180534      -0.12752682      -1.80553161       1.16995410
H       -0.02446343      -0.93978672       0.29209147      -0.01258487       0.23877761      -0.19114381      -0.11818513       2.09609302       0.97605861
