3
Properties=species:S:1:pos:R:3:momenta:R:3:forces:R:3 energy=-2076.4744245598245 pbc="F F F"
O        0.00439722       0.00012323       0.04239178       0.05397404      -0.01853644       0.09539719       0.23821726      -0.06863641      -0.53228262
H       -0.01626673       1.16707872       0.09222950      -0.00090064       0.74249527      -0.07619410      -0.23563493      -6.43483319       0.50017854
H       -0.05735789      -1.16276348       0.17527869      -0.05307339      -0.72395883      -0.01920309      -0.00535363       6.50290532       0.03470070
