3
Properties=species:S:1:pos:R:3:momenta:R:3:forces:R:3 energy=-2075.855373394146 pbc="F F F"
O        0.00420271      -0.00127377       0.02631173       0.03543997       0.00248700       0.04571289       0.12895623       0.02147468      -0.79031902
H       -0.02829295       1.23322492       0.22111847      -0.00507600       0.38716022      -0.03572121      -0.10352953      -6.53192848       0.60628468
H       -0.04269467      -1.20819443       0.30306674      -0.03036397      -0.38964723      -0.00999168      -0.02867191       6.51151752       0.18124367
