3
Properties=species:S:1:pos:R:3:momenta:R:3:forces:R:3 energy=-2077.717479899637 pbc="F F F"
O        0.00593357       0.00289071       0.09996656       0.07684828       0.02482675       0.71001898      -0.13407042      -0.16471488      -0.95813162
H        0.03170143       1.04875526      -0.37031286       0.02298981       0.65994729      -0.39409746      -0.36717933      -5.67754179       0.71983098
H       -0.12777626      -1.08709100      -0.27173906      -0.09983809      -0.68477404      -0.31592152       0.49997820       5.85175532       0.23669326
