3
Properties=species:S:1:pos:R:3:momenta:R:3:forces:R:3 energy=-2077.0670859295637 pbc="F F F"
O        0.00659967       0.00407758       0.11800130      -0.03888359       0.00592181      -0.25853331      -0.34702710      -0.20684675      -3.34760305
H        0.04863505       1.06203586      -0.52288483      -0.00364175      -0.38547683       0.15236628      -0.36893228      -5.69738280       1.98344870
H       -0.15526515      -1.12068388      -0.40504982       0.04252534       0.37955502       0.10616703       0.71553106       5.90458627       1.36436031
