3
Properties=species:S:1:pos:R:3:momenta:R:3:forces:R:3 energy=-2078.872772460199 pbc="F F F"
O        0.00337678       0.00448389       0.12709861       0.01738381       0.04321477       0.94609379      -0.17167779      -0.06749543      -4.77874820
H        0.11636262       0.84196488      -0.60209485       0.11320135       0.61941545      -0.53447563      -0.53390714      -3.81876822       2.77296262
H       -0.16712176      -0.90670043      -0.46273914      -0.13058517      -0.66263021      -0.41161816       0.70943962       3.88591675       2.00825902
