3
Properties=species:S:1:pos:R:3:momenta:R:3:forces:R:3 energy=-2079.039312585562 pbc="F F F"
O        0.00016629       0.00024454       0.11269571       0.00377767      -0.01139071       0.64034960      -0.00242537      -0.00884864      -2.11136042
H       -0.00332190       0.92239772      -0.42224544      -0.00324055       0.72398450      -0.31944014       0.01356794      -3.98109002       1.05037690
H        0.00236829      -0.92141120      -0.42412598      -0.00053713      -0.71259379      -0.32090946      -0.01105286       3.99016116       1.06435321
