3
Properties=species:S:1:pos:R:3:momenta:R:3:forces:R:3 energy=-2077.515887630037 pbc="F F F"
O       -0.00861561       0.00252729       0.05793670       0.10872987      -0.04478646      -0.29255580      -0.36403862       0.57104461       0.21479236
H        0.39293090       1.00492487      -0.09824458      -0.28319860      -0.74434651       0.22497636      -1.43398232      -5.35557872       0.47725333
H       -0.25262463      -1.04019746       0.13315016       0.17446873       0.78913297       0.06757943       1.80266992       4.78222319      -0.68854611
