3
Properties=species:S:1:pos:R:3:momenta:R:3:forces:R:3 energy=-2078.439752561238 pbc="F F F"
O       -0.00656292       0.00421665       0.06905119       0.04193568      -0.01344832      -0.38289387      -0.66934309       0.13978750       1.42949090
H        0.33415903       0.89610843      -0.16975737      -0.12679003      -0.39546221       0.23152982      -0.37987309      -2.46540355      -0.47848997
H       -0.22662552      -0.95886566       0.02721203       0.08485435       0.40891053       0.15136405       1.05218876       2.32841402      -0.95360163
