3
Properties=species:S:1:pos:R:3:momenta:R:3:forces:R:3 energy=-2077.8951482670323 pbc="F F F"
O       -0.00331053       0.00706352       0.10786081      -0.06706786       0.04722940       0.49555772       0.10266951      -0.31752876      -1.92891781
H        0.28569435       0.95907953      -0.47368470       0.23136493       0.67352942      -0.32036620      -1.43593284      -5.27200619       1.45098213
H       -0.23100596      -1.06349875      -0.28430292      -0.16429707      -0.72075882      -0.17519152       1.33591742       5.59202034       0.47523480
