3
Properties=species:S:1:pos:R:3:momenta:R:3:forces:R:3 energy=-2077.6054599256418 pbc="F F F"
O       -0.00414109       0.00618829       0.10462663       0.01627402      -0.09666570      -0.71837529       0.14421122      -0.11852570      -1.51226038
H        0.30802786       0.99250415      -0.45466211      -0.15202880      -0.56644808       0.41006961      -1.55602409      -5.57049272       1.31660668
H       -0.23917208      -1.08235758      -0.25188994       0.13575478       0.66311378       0.30830568       1.41623721       5.68952797       0.19468652
