3
Properties=species:S:1:pos:R:3:momenta:R:3:forces:R:3 energy=-2077.00517764392 pbc="F F F"
O       -0.00701470      -0.00425807       0.00233927      -0.05458022      -0.09073869      -0.55183296       0.19249328       0.10171690       1.47106051
H        0.43905607       1.08520023       0.30381869       0.20428891       0.48826199       0.20312588      -2.16466198      -5.73458212       0.11191075
H       -0.32428655      -1.01432540       0.61397029      -0.14970870      -0.39752329       0.34870708       1.96792593       5.63425915      -1.57922135
