3
Properties=species:S:1:pos:R:3:momenta:R:3:forces:R:3 energy=-2076.8207580576645 pbc="F F F"
O       -0.00876945       0.00378785       0.04941509      -0.10899402       0.02419781      -0.26922977      -0.56767958      -0.13537627      -0.16615331
H        0.41795613       1.04875774      -0.04073290       0.30434401       0.72457061       0.04420950      -1.59785705      -5.82674783       0.77769636
H       -0.27530010      -1.10485998       0.21059062      -0.19534999      -0.74876841       0.22502027       2.16959991       5.96189454      -0.60775877
