9
Properties=species:S:1:pos:R:3 dipole_vector="-0.11546 0.32466 0.03594" energy=-6235.828867410798 pbc="F F F"
O        1.58074956       0.32890065      -0.08993070
H        0.87961966       0.15905197      -0.74018924
H        2.30024726      -0.25102977      -0.32991378
O       -0.84249114      -0.26860360      -1.35211437
H       -1.05733294      -0.28125254      -0.40510433
H       -1.56858824       0.18136914      -1.77758234
O       -0.72875404      -0.08605961       1.43846209
H       -0.88297654       0.50819071       2.16890319
H        0.17817686       0.09257467       1.14075549
9
Properties=species:S:1:pos:R:3 dipole_vector="-0.05500 0.03539 0.33988" energy=-6235.510632583966 pbc="F F F"
O       -2.45725552       0.59996000       0.07147785
H       -2.90858382       1.10811845      -0.60393552
H       -2.95722122      -0.21379003       0.14805385
O        0.16806298      -0.10817536      -1.03841929
H        0.79653818      -0.25579175      -0.32359127
H       -0.64698142       0.15952769      -0.60048322
O        2.29130628      -0.49314507       0.95388170
H        2.91412618      -1.11168632       0.56968590
H        2.76857258       0.33521453       1.01755472
